# vtk DataFile Version 2.0
3D Data
ASCII
DATASET UNSTRUCTURED_GRID
POINTS 14758 double 
564904 -1.77358e+06 -2680.45
565404 -1.77358e+06 -2723.89
565904 -1.77358e+06 -2773.64
564904 -1.77308e+06 -2689.61
565404 -1.77308e+06 -2737.69
565904 -1.77308e+06 -2776.32
564904 -1.77258e+06 -2692.35
565404 -1.77258e+06 -2737.24
565904 -1.77258e+06 -2772.77
536404 -1.77208e+06 -2671.64
536904 -1.77208e+06 -2691.75
556904 -1.77208e+06 -2202.19
564904 -1.77208e+06 -2690.27
565404 -1.77208e+06 -2733.56
565904 -1.77208e+06 -2764.61
535904 -1.77158e+06 -2647.83
536404 -1.77158e+06 -2675.08
536904 -1.77158e+06 -2695.85
537404 -1.77158e+06 -2713.54
556404 -1.77158e+06 -2189.22
556904 -1.77158e+06 -2204.82
557404 -1.77158e+06 -2202.59
564904 -1.77158e+06 -2681.49
565404 -1.77158e+06 -2724.3
565904 -1.77158e+06 -2749.81
535904 -1.77108e+06 -2644.36
536404 -1.77108e+06 -2673.97
536904 -1.77108e+06 -2695.43
537404 -1.77108e+06 -2714.47
556404 -1.77108e+06 -2174.12
556904 -1.77108e+06 -2186.71
557404 -1.77108e+06 -2187.27
564904 -1.77108e+06 -2661.71
565404 -1.77108e+06 -2702.03
565904 -1.77108e+06 -2723.94
535904 -1.77058e+06 -2638.75
536404 -1.77058e+06 -2670.64
536904 -1.77058e+06 -2694.17
537404 -1.77058e+06 -2714.93
555904 -1.77058e+06 -2140.25
556404 -1.77058e+06 -2151.05
556904 -1.77058e+06 -2159.76
557404 -1.77058e+06 -2164.68
564904 -1.77058e+06 -2629.72
565404 -1.77058e+06 -2661.5
565904 -1.77058e+06 -2685.85
531404 -1.77008e+06 -2477.13
531904 -1.77008e+06 -2479.03
535904 -1.77008e+06 -2636.33
536404 -1.77008e+06 -2676.54
536904 -1.77008e+06 -2700.64
555904 -1.77008e+06 -2122.04
556404 -1.77008e+06 -2128.88
556904 -1.77008e+06 -2137.24
561404 -1.77008e+06 -2325.79
564904 -1.77008e+06 -2595.58
565404 -1.77008e+06 -2623.83
565904 -1.77008e+06 -2645.29
526404 -1.76958e+06 -2311.93
530904 -1.76958e+06 -2479.29
531404 -1.76958e+06 -2494.88
531904 -1.76958e+06 -2483.13
532404 -1.76958e+06 -2460.37
535904 -1.76958e+06 -2636.95
536404 -1.76958e+06 -2689.73
536904 -1.76958e+06 -2708.21
546904 -1.76958e+06 -2604.24
555904 -1.76958e+06 -2111.72
556404 -1.76958e+06 -2118.1
556904 -1.76958e+06 -2124.16
560904 -1.76958e+06 -2281.06
561404 -1.76958e+06 -2320.08
561904 -1.76958e+06 -2361.78
564904 -1.76958e+06 -2559.14
565404 -1.76958e+06 -2582.92
565904 -1.76958e+06 -2601.23
525904 -1.76908e+06 -2326.23
526404 -1.76908e+06 -2331.14
526904 -1.76908e+06 -2339.16
530904 -1.76908e+06 -2508.61
531404 -1.76908e+06 -2535.16
531904 -1.76908e+06 -2494.87
535904 -1.76908e+06 -2633.38
536404 -1.76908e+06 -2694.26
536904 -1.76908e+06 -2709.38
541404 -1.76908e+06 -2900.63
546404 -1.76908e+06 -2643.88
546904 -1.76908e+06 -2595.39
547404 -1.76908e+06 -2562.57
555904 -1.76908e+06 -2111.15
556404 -1.76908e+06 -2119.86
556904 -1.76908e+06 -2121.63
560904 -1.76908e+06 -2276.34
561404 -1.76908e+06 -2316.62
561904 -1.76908e+06 -2357.74
564904 -1.76908e+06 -2521.23
565404 -1.76908e+06 -2538.12
565904 -1.76908e+06 -2554.1
525904 -1.76858e+06 -2344.06
526404 -1.76858e+06 -2334.12
526904 -1.76858e+06 -2362.3
530904 -1.76858e+06 -2530.95
531404 -1.76858e+06 -2576.29
531904 -1.76858e+06 -2496.87
535904 -1.76858e+06 -2623.9
536404 -1.76858e+06 -2696.7
536904 -1.76858e+06 -2703.91
540904 -1.76858e+06 -2887.79
541404 -1.76858e+06 -2913.68
541904 -1.76858e+06 -2928.56
546404 -1.76858e+06 -2637.68
546904 -1.76858e+06 -2588.99
547404 -1.76858e+06 -2540.81
551404 -1.76858e+06 -2251.35
555904 -1.76858e+06 -2116.19
556404 -1.76858e+06 -2126.84
556904 -1.76858e+06 -2125.11
560904 -1.76858e+06 -2271.76
561404 -1.76858e+06 -2314.63
561904 -1.76858e+06 -2354.69
564904 -1.76858e+06 -2486.88
565404 -1.76858e+06 -2495.26
565904 -1.76858e+06 -2508.45
516904 -1.76808e+06 -2190.54
521404 -1.76808e+06 -2254.82
525904 -1.76808e+06 -2379.51
526404 -1.76808e+06 -2353.62
526904 -1.76808e+06 -2406.03
527404 -1.76808e+06 -2439.06
527904 -1.76808e+06 -2453.13
528404 -1.76808e+06 -2454.91
528904 -1.76808e+06 -2453.84
529404 -1.76808e+06 -2457.11
529904 -1.76808e+06 -2464.08
530404 -1.76808e+06 -2477.95
530904 -1.76808e+06 -2515.54
531404 -1.76808e+06 -2597.61
531904 -1.76808e+06 -2457.56
532404 -1.76808e+06 -2375.64
532904 -1.76808e+06 -2333.63
533404 -1.76808e+06 -2320.73
533904 -1.76808e+06 -2329.66
534404 -1.76808e+06 -2368.16
535904 -1.76808e+06 -2606.43
536404 -1.76808e+06 -2697.58
536904 -1.76808e+06 -2690.76
540904 -1.76808e+06 -2893.63
541404 -1.76808e+06 -2916.17
541904 -1.76808e+06 -2940.01
546404 -1.76808e+06 -2637.55
546904 -1.76808e+06 -2590.75
547404 -1.76808e+06 -2547.72
550904 -1.76808e+06 -2286.86
551404 -1.76808e+06 -2269.34
551904 -1.76808e+06 -2232.68
555904 -1.76808e+06 -2124.06
556404 -1.76808e+06 -2138.37
556904 -1.76808e+06 -2131.82
560904 -1.76808e+06 -2264.34
561404 -1.76808e+06 -2310.78
561904 -1.76808e+06 -2349.22
564904 -1.76808e+06 -2464.02
565404 -1.76808e+06 -2469.64
565904 -1.76808e+06 -2472.29
516404 -1.76758e+06 -2183.11
516904 -1.76758e+06 -2185.69
517404 -1.76758e+06 -2189.41
520904 -1.76758e+06 -2242.91
521404 -1.76758e+06 -2257.79
521904 -1.76758e+06 -2268.4
525404 -1.76758e+06 -2439.86
525904 -1.76758e+06 -2442.32
526404 -1.76758e+06 -2404.99
526904 -1.76758e+06 -2461.74
527404 -1.76758e+06 -2479.26
527904 -1.76758e+06 -2487.44
528404 -1.76758e+06 -2488.25
528904 -1.76758e+06 -2488.34
529404 -1.76758e+06 -2492.9
529904 -1.76758e+06 -2494.82
530404 -1.76758e+06 -2477.89
530904 -1.76758e+06 -2442.63
531404 -1.76758e+06 -2500.23
531904 -1.76758e+06 -2380.23
532404 -1.76758e+06 -2371.69
532904 -1.76758e+06 -2363.19
533404 -1.76758e+06 -2364.23
533904 -1.76758e+06 -2376.29
534404 -1.76758e+06 -2402.97
534904 -1.76758e+06 -2464.58
535404 -1.76758e+06 -2514.27
535904 -1.76758e+06 -2582.75
536404 -1.76758e+06 -2689.35
536904 -1.76758e+06 -2668.68
537404 -1.76758e+06 -2667.05
537904 -1.76758e+06 -2686.54
538404 -1.76758e+06 -2711.93
538904 -1.76758e+06 -2748.67
539404 -1.76758e+06 -2792.7
539904 -1.76758e+06 -2838.13
540404 -1.76758e+06 -2881.53
540904 -1.76758e+06 -2911.57
541404 -1.76758e+06 -2921.79
541904 -1.76758e+06 -2958.46
542404 -1.76758e+06 -2970
542904 -1.76758e+06 -2964.48
543404 -1.76758e+06 -2950.88
543904 -1.76758e+06 -2927.52
544404 -1.76758e+06 -2894.59
544904 -1.76758e+06 -2858.27
545404 -1.76758e+06 -2818.25
545904 -1.76758e+06 -2757.26
546404 -1.76758e+06 -2654.58
546904 -1.76758e+06 -2634.98
547404 -1.76758e+06 -2626.36
547904 -1.76758e+06 -2592.41
548404 -1.76758e+06 -2538.32
548904 -1.76758e+06 -2478.05
549404 -1.76758e+06 -2427.28
549904 -1.76758e+06 -2388.99
550404 -1.76758e+06 -2360.26
550904 -1.76758e+06 -2326.54
551404 -1.76758e+06 -2273.1
551904 -1.76758e+06 -2252.71
552404 -1.76758e+06 -2217.7
555904 -1.76758e+06 -2131.17
556404 -1.76758e+06 -2151.22
556904 -1.76758e+06 -2136.14
560904 -1.76758e+06 -2254.13
561404 -1.76758e+06 -2304.06
561904 -1.76758e+06 -2339.5
564904 -1.76758e+06 -2452.48
565404 -1.76758e+06 -2472.68
565904 -1.76758e+06 -2446.43
515904 -1.76708e+06 -2166.35
516404 -1.76708e+06 -2177.11
516904 -1.76708e+06 -2181.61
517404 -1.76708e+06 -2185.57
520904 -1.76708e+06 -2231.83
521404 -1.76708e+06 -2237.71
521904 -1.76708e+06 -2259.35
525404 -1.76708e+06 -2488.32
525904 -1.76708e+06 -2464.48
526404 -1.76708e+06 -2402.09
526904 -1.76708e+06 -2422.11
527404 -1.76708e+06 -2428.01
527904 -1.76708e+06 -2446.15
528404 -1.76708e+06 -2479.04
528904 -1.76708e+06 -2518.24
529404 -1.76708e+06 -2548.15
529904 -1.76708e+06 -2569.88
530404 -1.76708e+06 -2575.34
530904 -1.76708e+06 -2575.51
531404 -1.76708e+06 -2637.35
531904 -1.76708e+06 -2580.06
532404 -1.76708e+06 -2577.89
532904 -1.76708e+06 -2589.18
533404 -1.76708e+06 -2605.09
533904 -1.76708e+06 -2618.95
534404 -1.76708e+06 -2601.96
534904 -1.76708e+06 -2603.87
535404 -1.76708e+06 -2590.56
535904 -1.76708e+06 -2585.23
536404 -1.76708e+06 -2657.1
536904 -1.76708e+06 -2664.33
537404 -1.76708e+06 -2707.22
537904 -1.76708e+06 -2752.61
538404 -1.76708e+06 -2779.39
538904 -1.76708e+06 -2814.41
539404 -1.76708e+06 -2853.24
539904 -1.76708e+06 -2890.58
540404 -1.76708e+06 -2931.69
540904 -1.76708e+06 -2963.8
541404 -1.76708e+06 -2962.81
541904 -1.76708e+06 -2997.45
542404 -1.76708e+06 -2990.68
542904 -1.76708e+06 -2973.06
543404 -1.76708e+06 -2957.1
543904 -1.76708e+06 -2935.95
544404 -1.76708e+06 -2908.35
544904 -1.76708e+06 -2879.4
545404 -1.76708e+06 -2846.71
545904 -1.76708e+06 -2805.51
546404 -1.76708e+06 -2702.86
546904 -1.76708e+06 -2729.74
547404 -1.76708e+06 -2703.4
547904 -1.76708e+06 -2661.73
548404 -1.76708e+06 -2602.77
548904 -1.76708e+06 -2537.08
549404 -1.76708e+06 -2485.84
549904 -1.76708e+06 -2440.33
550404 -1.76708e+06 -2397.79
550904 -1.76708e+06 -2353.31
551404 -1.76708e+06 -2303.77
551904 -1.76708e+06 -2280.78
552404 -1.76708e+06 -2244.18
552904 -1.76708e+06 -2213.01
553404 -1.76708e+06 -2177.97
553904 -1.76708e+06 -2147.43
554404 -1.76708e+06 -2128.53
554904 -1.76708e+06 -2121.92
555404 -1.76708e+06 -2125.58
555904 -1.76708e+06 -2137.59
556404 -1.76708e+06 -2155.89
556904 -1.76708e+06 -2140.37
557404 -1.76708e+06 -2128.64
557904 -1.76708e+06 -2128.72
558404 -1.76708e+06 -2137.4
558904 -1.76708e+06 -2149.52
559404 -1.76708e+06 -2165.33
559904 -1.76708e+06 -2185.08
560404 -1.76708e+06 -2211.37
560904 -1.76708e+06 -2250.03
561404 -1.76708e+06 -2296.94
561904 -1.76708e+06 -2334.21
562404 -1.76708e+06 -2366.24
562904 -1.76708e+06 -2390.11
563404 -1.76708e+06 -2399.09
563904 -1.76708e+06 -2403.43
564404 -1.76708e+06 -2410.94
564904 -1.76708e+06 -2431.91
565404 -1.76708e+06 -2466.94
565904 -1.76708e+06 -2407.85
566404 -1.76708e+06 -2377.66
566904 -1.76708e+06 -2378.07
567404 -1.76708e+06 -2398.76
515404 -1.76658e+06 -2144.19
515904 -1.76658e+06 -2149.18
516404 -1.76658e+06 -2159.32
516904 -1.76658e+06 -2170.12
517404 -1.76658e+06 -2182.27
517904 -1.76658e+06 -2194.48
520904 -1.76658e+06 -2219.88
521404 -1.76658e+06 -2198.91
521904 -1.76658e+06 -2248.8
524904 -1.76658e+06 -2506.13
525404 -1.76658e+06 -2562.63
525904 -1.76658e+06 -2580.81
526404 -1.76658e+06 -2497.3
526904 -1.76658e+06 -2606.57
527404 -1.76658e+06 -2618.82
527904 -1.76658e+06 -2635.07
[...]
POINT_DATA 14758
SCALARS T double
LOOKUP_TABLE default
-206.116 -110.666 -44.0641 -124.226 -89.3833 24.9835 16.538 23.2054 156.636 -245.107 -226.442 -141.293 264.428 335.531 397.461 -259.108 -255.933 -224.134 -206.648 -126.049 -136.114 -154.01 484.202 618.578 610.242 -274.505 -289.323 -264.686 -224.745 -128.285 -136.962 -150.482 542.219 680.286 659.286 -266.031 -282.388 -265.013 -225.538 -127.953 -130.812 -137.788 -148.867 424.314 531.371 528.193 -140.416 -167.549 -226.132 -232.035 -220.454 -130.179 -132.003 -138.178 -151.801 184.514 178.023 268.693 -126.317 -97.363 -140.938 -177.135 -200.771 -166.037 -135.727 -159.745 -243.655 -131.209 -132.786 -138.268 -185.451 -166.232 -138.446 34.5132 9.78927 90.4143 -131.149 -124.334 -125.016 -81.4622 -137.697 -183.968 -151.068 -104.257 -149.828 424.74 -205.001 -267.86 -285.107 -130.785 -132.071 -137.441 -191.119 -175.635 -155.449 -18.3575 -41.2815 -1.93824 -137.959 -138.554 -132.119 -67.9167 -132.939 -193.924 -211.153 -201.359 -218.216 403.797 486.754 557.023 -212.46 -290.69 -302.701 -165.343 -129.55 -130.551 -135.938 -195.899 -180.464 -160.01 -23.7062 -83.3506 -62.5512 -137.441 -102.014 -139.046 -130.654 -132.012 -113.328 -81.9967 -35.89 -0.0414472 15.3184 23.0262 49.0579 -68.4083 -142.639 -215.581 -256.038 -273.964 -277.546 -284.286 -291.329 -272.368 -277.456 -287.35 506.316 600.32 642.815 -227.249 -295.341 -303.475 -169.515 -155.297 -149.253 -128.46 -129.965 -134.363 -202.566 -185.869 -152.218 14.4458 -111.512 -100.297 -140.963 -141.009 -135.551 -101.125 -100.299 -97.959 -95.4713 -132.466 -117.476 -138.604 -122.056 -95.0549 -32.3258 17.6313 35.0631 37.9255 150.254 -88.4712 -190.278 -247.697 -273.348 -281.751 -272.733 -280.684 -299.958 -306.133 -306.987 -305.965 -307.522 -324.881 -357.209 -407.432 -458.134 -451.69 -295.396 60.2945 430.466 611.57 726.299 716.759 723.587 794.059 883.485 916.37 637.866 187.213 -49.7818 -176.148 -253.225 -288.662 -287.956 -271.744 -251.054 -230.17 -210.407 -192.636 -176.735 -162.804 -151.805 -145.326 -141.153 -126.836 -127.989 -131.883 -211.923 -197.755 -136.476 110.545 -114.041 -95.447 -138.787 -139.494 -141.731 -137.408 -98.3243 -95.2702 -91.3055 -28.0741 -56.1071 -96.8363 -150.182 -164.608 -153.69 -87.1184 1.83172 105.982 168.715 246.844 -12.467 -163.629 -228.446 -255.646 -250.74 -222.596 -225.683 -270.582 -298.962 -312.212 -317.687 -317.866 -336.363 -363.791 -408.046 -464.742 -493.978 -377.986 55.674 540.018 649.398 720.041 710.425 713.615 811.541 932.718 1079.76 743.852 75.1904 -132.307 -218.236 -267.08 -279.768 -269.355 -251.835 -232.437 -213.728 -196.285 -181.619 -169.039 -158.226 -149.507 -143.127 -138.437 -134.848 -131.924 -129.483 -127.591 -126.158 -125.348 -125.371 -126.482 -129.197 -133.905 -140.747 -150.127 -162.763 -178.131 -193.838 -207.167 -215.306 -203.818 -133.429 96.0395 542.263 705.327 682.567 589.293 288.69 -41.6954 -6.21216 71.0518 85.5183 59.2466 -136.811 -135.399 -136.377 -140.932 -139.125 -129.788 -96.4381 -90.7964 -85.048 4.44136 45.7023 37.7112 -43.2883 -57.8909 -66.1545 -47.7389 -22.7069 -1.71481 35.5404 164.363 232.557 29.7973 -145.719 -232.294 -259.814 -236.256 -184.034 -188.158 -243.144 -281.642 -294.369 -300.1 -306.159 -324.036 -350.511 -380.38 -401.091 -393.651 -291.089 37.594 551.445 700.978 692.005 704.256 677.622 777.248 990.701 1101.02 1161.25 572.471 74.2203 -161.401 -265.03 -285.174 -273.34 -251.818 -229.144 -209.367 -192.384 -178.119 -166.11 -156.11 -148.269 -141.996 -136.985 -132.729 -129.495 -126.995 -125.416 -124.224 -123.625 -123.876 -124.664 -126.669 -130.288 -135.787 -143.771 -155.294 -170.007 -185.967 -199.722 -210.322 -207.214 -166.094 43.5622 756.916 898.003 819.569 830.477 538.412 147.809 171.467 201.114 148.813 52.4747 35.279 -131.798 -133.566 -131.238 -134.209 -141.864 -142.098 -130.823 -114.918 -102.613 -98.1479 -99.6989 -101.104 -98.4937 -91.6303 -83.2421 -74.4197 -65.6248 -58.9008 -53.171 -39.3424 -4.32878 46.899 76.6823 50.234 -9.84914 -27.4911 -9.53293 -22.3119 -48.098 -58.5973 23.4245 186.706 71.353 -134.442 -242.037 -264.79 -215.461 -139.164 -155.183 -227.635 -277.116 -297.611 -299.076 -294.926 -309.836 -344.788 -385.029 -399.2 -339.367 -118.623 343.137 725.771 844.316 808.691 754.577 657.417 705.579 942.269 901.179 403.504 80.1343 -105.637 -212.126 -264.212 -271.592 -261 -242.937 -222.545 -204.083 -187.937 -174.101 -163.268 -154.179 -146.706 -140.458 -135.371 -131.465 -128.46 -126.11 -124.363 -122.997 -122.07 -122.186 -123.172 -125.432 -128.951 -134.404 -142.503 -153.337 -166.986 -181.875 -193.417 -199.181 -192.837 -157.748 -16.1898 461.761 800.86 738.784 738.732 704.936 409.824 263.849 177.126 109.878 37.29 -122.195 -125.626 -127.787 -132.401 -140.447 -142.473 -130.782 -111.721 -97.5265 -94.8239 -100.794 -105.196 -102.774 -93.9643 -85.3242 -77.3339 -68.865 -64.2544 -66.3945 -65.1437 -39.138 11.7287 54.2144 81.5411 14.2258 15.5803 46.9213 27.2046 -24.6362 -67.4135 -5.09614 136.891 38.2534 -153.059 -270.667 -279.56 -163.132 -48.1865 -120.216 -225.876 -284.884 -307.536 -304.615 -270.434 -280.987 -338.577 -389.084 -384.919 -256.357 119.393 645.41 789.378 833.544 882.124 891.326 808.593 754.048 827.178 535.206 8.78555 -195.537 -251.782 -259.431 -265.614 -262.121 -251.134 -234.298 -215.694 -198.887 -184.028 -171.532 -160.686 -151.946 -144.792 -139.326 -134.52 -130.606 -127.246 -124.765 -122.94 -121.535 -120.5 -120.399 -121.453 -123.397 -126.853 -132.043 -139.755 -149.934 -162.091 -175.055 -183.587 -180.952 -163.602 -135.048 -38.7159 410.891 823.441 762.789 722.996 704.815 477.336 208.715 98.3595 47.1266 -110.644 -106.688 -113.804 -119.799 -125.335 -135.237 -140.313 -131.235 -113.802 -100.261 -97.5062 -103.233 -108.081 -105.517 -97.1138 -90.8644 -87.7689 -85.7538 -83.9058 -83.1526 -75.664 -45.1831 3.04824 45.3842 64.104 38.7459 39.9374 71.8724 70.0149 18.029 -41.6158 13.6025 181.537 71.7436 -169.214 -284.884 -270.457 -133.892 2.11027 -54.9862 -188.458 -276.529 -307.067 -285.053 -210.286 -217.499 -301.307 -379.428 -375.627 -187.213 336.082 840.023 906.929 907.397 934.84 996.966 1004.79 940.4 591.076 21.9721 -255.482 -320.638 -314.169 -293.579 -275.552 -261.558 -246.968 -230.444 -212.577 -196.248 -182.045 -169.923 -159.654 -150.954 -143.703 -137.77 -133.065 -129.127 -125.925 -123.568 -121.762 -120.264 -119.334 -119.052 -119.911 -121.595 -124.274 -129.086 -136.018 -145.062 -156.014 -166.623 -172.111 -164.171 -129.2 -36.4971 142.837 464.908 742.35 787.916 743.89 674.122 456.189 225.086 95.5358 19.4324 -83.5576 -92.8419 -104.73 -114.367 -128.064 -135.565 -130.344 -117.651 -106.035 -103.463 -108.225 -112.264 -109.439 -103.816 -100.731 -100.298 -101.156 -101.062 -99.0908 -90.8897 -64.0874 -10.3785 43.5397 57.231 21.3407 23.6545 36.8306 25.5781 -4.69895 -7.71902 149.135 489.847 213.52 -115.787 -226.117 -184.911 43.2854 223.03 17.2724 -192.178 -294.073 -329.802 -316.105 -224.421 -122.913 -138.665 -250.923 -301.423 -154.018 327.295 750.17 832.871 783.285 678.481 868.083 1066.93 1105.35 625.099 -42.6243 -287.726 -346.471 -336.061 -306.912 -278.334 -259.377 -243.316 -226.852 -210.01 -194.284 -180.524 -168.539 -158.499 -150.07 -142.624 -136.487 -131.787 -127.902 -124.681 -122.304 -120.458 -118.996 -118.153 -118.122 -118.615 -120.201 -122.947 -127.511 -133.54 -141.649 -151.341 -160.072 -162.615 -151.253 -113.058 -15.5091 85.9233 123.957 379.497 800.955 710.942 406.929 248.299 132.874 45.0529 -14.0854 -60.1021 -89.2243 -97.8721 -73.5652 -58.0337 -72.1126 -89.0603 -99.8549 -112.99 -124.817 -128.6 -123.471 -116.222 -113.709 -115.246 -116.362 -114.817 -112.139 -110.514 -110.823 -111.967 -112.537 -110.202 -102.655 -79.4948 -25.523 28.6685 23.5399 -0.933844 -12.4956 -25.072 -59.378 -101.509 -106.748 14.0735 414.037 538.156 52.3902 -113.17 -31.3559 395.011 552.799 72.9035 -205.249 -314.805 -352.183 -341.597 -254.755 -20.926 119.155 29.2768 -18.5927 177.134 441.865 194.963 -54.5236 -180.571 -156.04 140.035 689.025 1025.25 657.336 90.3767 -161.36 -247.701 -265.612 -262.872 -256.344 -247.366 -234.327 -219.894 -204.327 -189.876 -176.778 -165.592 -156.156 -147.801 -140.878 -135.163 -130.68 -126.793 -123.523 -121.214 -119.374 -117.876 -116.999 -117.017 -117.51 -118.941 -121.44 -125.436 -131.189 -138.511 -147.279 -155.048 -157.576 -147.005 -116.383 -70.2422 -40.6424 -25.769 111.375 547.213 632.958 281.474 112.968 34.4315 -5.94113 -43.4648 -87.8427 -120.827 -131.457 -122.996 -50.5209 -56.0149 -71.9592 -85.1766 -95.1908 -112.073 -127.313 -130.601 -126.624 -123.819 -122.499 -120.139 -118.665 -118.307 -118.951 -118.777 -117.911 -116.078 -111.048 -100.828 -77.0526 -34.8252 -0.373358 -8.11397 -19.8286 -48.1408 -89.666 -141.42 -187.159 -202.44 -137.163 122.111 542.097 394.511 359.531 595.287 831.919 463.989 -38.903 -249.352 -349.196 -388.972 -389.144 -305.246 54.8843 491.103 524.269 473.462 661.348 587.973 -26.8448 -338.074 -418.942 -403.079 -317.999 13.412 514.342 732.55 391.153 48.4832 -98.3149 -147.876 -186.389 -218.236 -226.928 -220.65 -209.177 -196.586 -183.841 -171.952 -161.674 -153.13 -145.641 -138.821 -133.426 -129.106 -125.311 -122.435 -120.425 -118.912 -117.411 -116.559 -116.652 -117.307 -118.47 -120.625 -124.253 -129.468 -136.114 -143.941 -151.549 -155.322 -148.876 -127.149 -96.8644 -77.5358 -66.2327 57.699 560.321 588.717 230.61 67.2563 -0.924554 -37.6356 -70.6623 -104.271 -126.177 -136.96 -137.127 -44.4754 -43.8937 -60.7999 -75.7663 -86.9505 -104.844 -122.824 -131.75 -132.981 -131.391 -127.917 -123.184 -120.661 -120.864 -122.178 -122.051 -119.78 -114.293 -103.881 -86.9775 -61.1838 -31.1681 -11.8078 -18.5163 -45.2194 -81.8592 -120.004 -155.925 -185.858 -196.29 -158.332 12.3872 510.707 1070.15 1227.47 1174 1233.82 800.142 155.665 -198.54 -357.925 -417.757 -438.281 -372.424 104.762 711.893 881.632 868.211 826.29 375.72 -190.882 -408.828 -462.884 -449.241 -396.069 -254.217 -7.06783 354.848 396.328 176.611 24.3901 -42.7744 -120.593 -186.386 -208.511 -209.675 -201.831 -190.618 -178.859 -167.832 -158.309 -150.27 -143.07 -136.831 -131.767 -127.794 -124.128 -121.907 -120.071 -118.64 -117.381 -116.731 -116.751 -117.461 -118.56 -120.966 -124.278 -128.624 -134.424 -141.367 -148.532 -152.818 -149.278 -131.717 -100.995 -70.42 -43.4598 53.0179 424.036 547.944 261.023 83.8379 -1.92451 -53.7308 -88.7903 -112.627 -126.672 -136.695 -40.8682 -54.9092 -70.7819 -82.8742 -99.4306 -117.07 -130.395 -136.562 -135.64 -131.445 -126.108 -122.771 -122.776 -123.526 -123.128 -120.17 -111.859 -95.5357 -70.6029 -41.1794 -15.7361 -6.36994 -19.7919 -49.2576 -80.6914 -109.084 -132.641 -153.636 -156.299 -95.8204 105.193 738.705 1302.74 1119.16 878.63 1069.06 909.492 314.571 -57.087 -226.521 -255.945 -240.374 -183.477 284.599 764.97 861.755 945.053 746.071 134.155 -249.167 -395.85 -444.298 -443.617 -413.919 -348.355 -235.186 -43.8316 336.588 450.143 97.7949 -56.5494 -124.768 -176.635 -200.756 -204.919 -198.459 -187.887 -176.644 -166.226 -156.87 -148.633 -141.219 -135.954 -131.539 -127.736 -124.42 -121.995 -120.026 -118.858 -117.744 -117.097 -116.96 -117.341 -118.608 -120.729 -123.869 -127.271 -132.241 -138.233 -144.565 -148.765 -146.023 -128.794 -93.1079 -51.8808 -13.8829 85.4041 363.515 403.92 216.567 77.8247 -7.46154 -61.8491 -98.4755 -118.342 -125.934 -133.752 -37.5022 -38.1318 -51.7018 -67.0501 -78.5027 -92.9838 -108.51 -122.378 -132.399 -134.035 -131.557 -127.157 -124.894 -125.043 -125.325 -124.107 -120.135 -110.08 -89.1274 -57.3247 -24.1621 -7.16715 -11.3231 -29.7014 -46.9374 -51.6689 -41.4147 -24.5519 -27.0879 -26.8071 28.5204 163.949 378.581 379.794 237.01 148.475 295.24 612.922 815.481 460.885 175.136 156.762 272.922 359.473 625.615 770.501 791.04 813.25 436.207 -130.266 -361.665 -410.572 -410.068 -405.745 -397.362 -377.779 -333.949 -233.453 43.5491 242.06 19.1637 -119.185 -156.395 -179.36 -196.701 -202.921 -197.482 -186.468 -174.859 -164.629 -155.484 -147.666 -141.127 -135.855 -131.302 -127.969 -125.106 -122.709 -121.022 -119.269 -117.921 -116.993 -116.736 -117.095 -118.235 -119.674 -122.165 -125.559 -130.044 -135.16 -140.464 -144.229 -141.885 -125.395 -85.0851 -31.1617 14.8108 79.0351 208.946 231.78 131.909 38.0747 -28.2871 -79.4786 -109.23 -121.506 -125.402 -129.718 -138.62 -34.8597 -39.1126 -48.8756 -60.1531 -72.6168 -85.0763 -97.5959 -109.63 -120.555 -126.641 -127.708 -126.404 -126.231 -127.042 -127.202 -125.411 -120.072 -107.021 -81.6218 -46.617 -19.7722 -19.1817 -40.0264 -62.535 -65.482 -47.7588 -7.79909 71.8304 121.053 134.381 198.684 244.349 97.1696 -86.0632 -192.859 -242.693 -174.974 99.9349 628.835 929.825 774.319 712.674 696.812 718.536 717.268 726.56 703.895 700.617 403.465 -114.349 -324.52 -360.883 -356.433 -352.474 -356.72 -355.107 -342.467 -307.866 -223.163 -134.657 -131.395 -164.945 -182.031 -190.059 -197.292 -199.036 -193.137 -182.892 -172.032 -161.791 -153.24 -146.105 -140.031 -135.49 -131.181 -127.962 -125.219 -122.963 -121.419 -119.824 -118.256 -117.206 -116.623 -116.967 -117.588 -119.181 -121.225 -123.918 -127.513 -131.687 -136.294 -140.094 -140.021 -126.827 -87.777 -29.7561 23.9053 71.2725 156.152 163.086 73.6899 1.506 -57.0781 -99.222 -117.826 -123.541 -125.17 -127.515 -41.2873 -33.3439 -42.2445 -47.9631 -54.0037 -63.3366 -74.8117 -86.4635 -96.823 -106.886 -116.453 -121.62 -123.792 -126.285 -128.513 -128.829 -125.676 -117.901 -100.665 -70.2183 -36.9208 -24.4999 -47.0268 -85.2034 -114.176 -129.072 -131.671 -117.587 -71.1459 6.87304 87.1496 125.726 61.3516 -91.688 -217.847 -288.626 -327.467 -313.802 -198.335 172.16 776.01 913.035 925.739 941.297 940.613 874.741 654.586 497.215 434.845 237.808 -54.4403 -190.173 -217.345 -216.792 -241.038 -286.436 -309.774 -312.194 -291.361 -246.374 -201.703 -184.117 -186.895 -192.105 -195.409 -196.447 -193.884 -187.478 -178.108 -168.144 -158.968 -151.163 -144.654 -139.008 -134.184 -130.581 -127.805 -125.475 -122.824 -120.878 -119.702 -118.51 -117.66 -117.373 -117.386 -117.948 -118.764 -120.091 -122.171 -124.856 -128.17 -132.126 -136.245 -138.492 -131.31 -109.586 -69.2671 -14.1984 44.1481 83.4318 79.65 24.3658 -39.1059 -88.2847 -114.316 -123.999 -125.165 -123.755 -123.422 -128.088 -46.4099 -42.6626 -46.1576 -48.71 -51.6737 -56.376 -66.4294 -78.0636 -88.6828 -99.6433 -110.37 -116.929 -121.594 -126.36 -129.769 -129.541 -126.456 -117.309 -95.9652 -62.077 -36.4761 -44.2467 -82.1616 -122.731 -153.915 -167.464 -176.055 -174.944 -162.658 -133.132 -93.9734 -96.6981 -145.981 -203.492 -255.858 -299.45 -338.104 -359.602 -281.363 44.9601 720.791 1006.95 1108.88 1112.2 1063.92 806.055 615.922 513.805 454.758 333.32 144.481 15.5904 -24.52 -43.6807 -128.692 -214.562 -260.469 -276.279 -271.868 -251.533 -225.842 -207.625 -201.567 -201.313 -200.325 -196.675 -191.407 -184.176 -175.652 -166.377 -157.63 -150.129 -143.693 -138.26 -133.601 -130.001 -126.817 -124.39 -122.256 -120.524 -119.463 -118.333 -117.771 -117.307 -117.189 -117.413 -118.129 -118.881 -120.637 -122.52 -124.339 -126.904 -129.806 -132.526 -131.259 -122.843 -101.199 -60.4799 -7.84889 21.4101 9.1442 -31.7091 -74.1101 -106.446 -122.309 -125.169 -124.064 -120.334 -117.21 -119.195 -52.5718 -50.6407 -50.6426 -52.5564 -55.775 -55.1562 -56.0139 -63.6051 -73.7621 -84.8758 -96.1169 -106.73 -114.536 -121.105 -127.697 -132.423 -132.92 -129.628 -120.017 -99.8929 -69.434 -54.3273 -74.3848 -116.223 -152.817 -178.819 -192.351 -199.451 -199.72 -197.744 -194.31 -189.493 -191.759 -201.017 -210.429 -222.542 -242.416 -262.298 -259.35 -187.466 103.871 710.675 1032.57 1045.57 773.769 583.7 389.546 456.833 599.468 636.793 496.943 307.569 118.918 8.77213 -49.5362 -141.694 -203.172 -233.352 -248.433 -253.034 -245.534 -231.869 -220.916 -214.43 -210.193 -204.966 -197.987 -190.419 -181.974 -173.501 -165.052 -157.423 -150.244 -143.834 -138.411 -133.454 -129.55 -126.094 -123.52 -121.584 -120.056 -118.994 -117.916 -117.36 -117.088 -116.949 -117.277 -117.683 -117.953 -118.599 -119.498 -120.689 -122.635 -124.964 -127.258 -128.325 -126.921 -120.816 -104.551 -81.8996 -64.1621 -63.492 -79.972 -101.203 -115.813 -123.043 -123.982 -121.43 -116.218 -110.616 -109.576 -120.676 -45.1983 -44.3012 -48.3038 -53.6213 -58.588 -58.9673 -59.1433 -65.7353 -73.8224 -82.4124 -92.298 -102.394 -111.182 -119.958 -129.406 -135.813 -137.127 -136.062 -131.171 -116.299 -94.4931 -89.8848 -112.555 -143.498 -169.772 -188.073 -199.391 -206.235 -208.587 -211.013 -216.335 -218.381 -212.578 -201.796 -191.852 -188.407 -199.986 -195.263 -141.347 -7.3434 443.12 1239.11 1439.28 865.327 8.37821 -189.782 -174.079 2.4402 243.024 445.013 392.413 179.366 -16.8583 -127.993 -170.604 -193.915 -214.743 -229.763 -242.104 -247.553 -242.07 -233.129 -227.498 -223.908 -216.807 -207.132 -197.471 -187.988 -178.844 -171.048 -163.933 -157.121 -150.636 -144.146 -138.378 -133.654 -129.813 -126.401 -123.861 -121.596 -119.833 -118.313 -117.251 -116.655 -116.246 -115.948 -116.064 -116.027 -116.438 -117.37 -117.761 -119.114 -120.309 -122.377 -124.354 -125.613 -126.395 -125.19 -119.378 -109.37 -99.8106 -99.4064 -108.023 -116.748 -120.61 -121.808 -120.401 -117.213 -111.609 -106.803 -106.992 -47.5375 -36.8809 -36.8593 -43.9949 -51.2392 -56.371 -60.0981 -64.6003 -70.1796 -74.3443 -79.2516 -87.6268 -97.8221 -107.72 -117.354 -128.351 -136.125 -140.804 -143.59 -144.014 -138.585 -128.999 -127.582 -141.239 -160.092 -175.995 -187.917 -196.21 -200.551 -201.53 -201.843 -200.864 -193.633 -175.36 -153.206 -136.992 -120.033 -87.7793 -16.7371 110.613 206.68 299.826 507.154 1002.88 818.064 4.71582 -388.095 -387.725 -249.379 -54.5732 145.672 163.536 -40.6471 -187.763 -235.185 -233.954 -235.43 -239.67 -245.121 -251.032 -253.645 -251.379 -244.353 -236.852 -228.796 -218.776 -207.272 -195.21 -183.31 -173.433 -166.264 -161.449 -156.31 -150.8 -145.817 -140.302 -134.635 -130.498 -126.384 -123.447 -121.26 -119.539 -118.185 -116.896 -116.262 -115.538 -115.053 -115.064 -115.118 -115.477 -116.3 -117.181 -118.093 -118.952 -120.204 -121.273 -123.111 -124.58 -125.282 -124.465 -122.402 -119.45 -117.69 -119.134 -121.21 -120.785 -118.474 -115.071 -111.176 -106.613 -103.374 -130.484 -39.5242 -41.0603 -45.7896 -50.1968 -54.1302 -59.7379 -66.169 -70.2811 -71.6648 -73.7986 -80.8235 -91.5447 -102.545 -112.705 -121.82 -128.786 -136.15 -144.352 -150.703 -152.534 -150.126 -150.274 -156.067 -164.227 -172.162 -179.922 -185.724 -189.258 -190.677 -187.996 -175.543 -145.4 -104.789 -72.6411 -53.2149 -22.3469 68.3994 123.731 90.0146 -39.136 -143.216 -90.8101 160.573 310.535 -58.9028 -323.04 -381.806 -365.299 -314.751 -241.953 -193.934 -221.664 -258.877 -261.808 -259.011 -261.565 -264.215 -264.468 -263.707 -261.413 -256.85 -249.314 -240.105 -229.974 -218.59 -204.913 -190.92 -177.443 -166.975 -160.185 -156.754 -154.466 -151.024 -146.142 -141.082 -136.095 -131.283 -127.01 -123.76 -121.433 -119.445 -118.152 -116.931 -116.053 -115.023 -114.851 -114.364 -114.411 -115.073 -115.352 -115.821 -116.611 -117.223 -118.072 -119.102 -119.999 -120.648 -121.199 -120.892 -119.805 -118.871 -119.151 -118.453 -117.896 -115.842 -112.62 -108.56 -104.052 -100.218 -149.72 -137.992 -105.688 -41.229 -42.1944 -47.0402 -49.5929 -50.5956 -54.3564 -59.2091 -63.669 -65.8466 -65.9657 -67.9343 -75.3801 -85.9778 -97.0056 -106.838 -112.608 -114.539 -120.799 -135.808 -150.192 -157.702 -159.611 -159.36 -159.477 -161.762 -165.609 -170.089 -173.883 -176.892 -178.749 -174.919 -153.843 -94.6396 -20.877 16.6331 2.16928 -16.6699 -11.4323 -23.7617 -97.1418 -200.626 -267.963 -253.537 -73.7182 269.682 217.786 -161.378 -313.359 -347.836 -338.888 -311.112 -284.209 -279.724 -269.239 -266.767 -269.617 -275.738 -279.184 -277.032 -271.559 -264.719 -256.749 -247.189 -236.899 -226.821 -214.533 -197.927 -181.032 -166.202 -156.522 -151.997 -150.613 -149.851 -148.932 -146.658 -142.571 -137.721 -132.594 -127.937 -124.19 -121.407 -119.128 -117.74 -116.614 -115.636 -114.562 -114.434 -113.905 -114.342 -114.592 -114.655 -114.803 -115.287 -115.365 -115.581 -115.564 -115.726 -116.047 -115.996 -115.581 -115.192 -114.666 -113.695 -113.006 -111.241 -109.06 -106.134 -102.431 -97.9211 -94.688 -96.0155 -148.169 -133.509 -93.6896 -52.949 -32.0528 -29.2534 -36.8487 -45.6399 -49.249 -49.9246 -53.3774 -58.0609 -60.1485 -60.7498 -61.4725 -64.0808 -71.0661 -80.9