# vtk DataFile Version 2.0
3D Data
ASCII
DATASET UNSTRUCTURED_GRID
POINTS 14758 double 
564904 -1.77358e+06 -2680.45
565404 -1.77358e+06 -2723.89
565904 -1.77358e+06 -2773.64
564904 -1.77308e+06 -2689.61
565404 -1.77308e+06 -2737.69
565904 -1.77308e+06 -2776.32
564904 -1.77258e+06 -2692.35
565404 -1.77258e+06 -2737.24
565904 -1.77258e+06 -2772.77
536404 -1.77208e+06 -2671.64
536904 -1.77208e+06 -2691.75
556904 -1.77208e+06 -2202.19
564904 -1.77208e+06 -2690.27
565404 -1.77208e+06 -2733.56
565904 -1.77208e+06 -2764.61
535904 -1.77158e+06 -2647.83
536404 -1.77158e+06 -2675.08
536904 -1.77158e+06 -2695.85
537404 -1.77158e+06 -2713.54
556404 -1.77158e+06 -2189.22
556904 -1.77158e+06 -2204.82
557404 -1.77158e+06 -2202.59
564904 -1.77158e+06 -2681.49
565404 -1.77158e+06 -2724.3
565904 -1.77158e+06 -2749.81
535904 -1.77108e+06 -2644.36
536404 -1.77108e+06 -2673.97
536904 -1.77108e+06 -2695.43
537404 -1.77108e+06 -2714.47
556404 -1.77108e+06 -2174.12
556904 -1.77108e+06 -2186.71
557404 -1.77108e+06 -2187.27
564904 -1.77108e+06 -2661.71
565404 -1.77108e+06 -2702.03
565904 -1.77108e+06 -2723.94
535904 -1.77058e+06 -2638.75
536404 -1.77058e+06 -2670.64
536904 -1.77058e+06 -2694.17
537404 -1.77058e+06 -2714.93
555904 -1.77058e+06 -2140.25
556404 -1.77058e+06 -2151.05
556904 -1.77058e+06 -2159.76
557404 -1.77058e+06 -2164.68
564904 -1.77058e+06 -2629.72
565404 -1.77058e+06 -2661.5
565904 -1.77058e+06 -2685.85
531404 -1.77008e+06 -2477.13
531904 -1.77008e+06 -2479.03
535904 -1.77008e+06 -2636.33
536404 -1.77008e+06 -2676.54
536904 -1.77008e+06 -2700.64
555904 -1.77008e+06 -2122.04
556404 -1.77008e+06 -2128.88
556904 -1.77008e+06 -2137.24
561404 -1.77008e+06 -2325.79
564904 -1.77008e+06 -2595.58
565404 -1.77008e+06 -2623.83
565904 -1.77008e+06 -2645.29
526404 -1.76958e+06 -2311.93
530904 -1.76958e+06 -2479.29
531404 -1.76958e+06 -2494.88
531904 -1.76958e+06 -2483.13
532404 -1.76958e+06 -2460.37
535904 -1.76958e+06 -2636.95
536404 -1.76958e+06 -2689.73
536904 -1.76958e+06 -2708.21
546904 -1.76958e+06 -2604.24
555904 -1.76958e+06 -2111.72
556404 -1.76958e+06 -2118.1
556904 -1.76958e+06 -2124.16
560904 -1.76958e+06 -2281.06
561404 -1.76958e+06 -2320.08
561904 -1.76958e+06 -2361.78
564904 -1.76958e+06 -2559.14
565404 -1.76958e+06 -2582.92
565904 -1.76958e+06 -2601.23
525904 -1.76908e+06 -2326.23
526404 -1.76908e+06 -2331.14
526904 -1.76908e+06 -2339.16
530904 -1.76908e+06 -2508.61
531404 -1.76908e+06 -2535.16
531904 -1.76908e+06 -2494.87
535904 -1.76908e+06 -2633.38
536404 -1.76908e+06 -2694.26
536904 -1.76908e+06 -2709.38
541404 -1.76908e+06 -2900.63
546404 -1.76908e+06 -2643.88
546904 -1.76908e+06 -2595.39
547404 -1.76908e+06 -2562.57
555904 -1.76908e+06 -2111.15
556404 -1.76908e+06 -2119.86
556904 -1.76908e+06 -2121.63
560904 -1.76908e+06 -2276.34
561404 -1.76908e+06 -2316.62
561904 -1.76908e+06 -2357.74
564904 -1.76908e+06 -2521.23
565404 -1.76908e+06 -2538.12
565904 -1.76908e+06 -2554.1
525904 -1.76858e+06 -2344.06
526404 -1.76858e+06 -2334.12
526904 -1.76858e+06 -2362.3
530904 -1.76858e+06 -2530.95
531404 -1.76858e+06 -2576.29
531904 -1.76858e+06 -2496.87
535904 -1.76858e+06 -2623.9
536404 -1.76858e+06 -2696.7
536904 -1.76858e+06 -2703.91
540904 -1.76858e+06 -2887.79
541404 -1.76858e+06 -2913.68
541904 -1.76858e+06 -2928.56
546404 -1.76858e+06 -2637.68
546904 -1.76858e+06 -2588.99
547404 -1.76858e+06 -2540.81
551404 -1.76858e+06 -2251.35
555904 -1.76858e+06 -2116.19
556404 -1.76858e+06 -2126.84
556904 -1.76858e+06 -2125.11
560904 -1.76858e+06 -2271.76
561404 -1.76858e+06 -2314.63
561904 -1.76858e+06 -2354.69
564904 -1.76858e+06 -2486.88
565404 -1.76858e+06 -2495.26
565904 -1.76858e+06 -2508.45
516904 -1.76808e+06 -2190.54
521404 -1.76808e+06 -2254.82
525904 -1.76808e+06 -2379.51
526404 -1.76808e+06 -2353.62
526904 -1.76808e+06 -2406.03
527404 -1.76808e+06 -2439.06
527904 -1.76808e+06 -2453.13
528404 -1.76808e+06 -2454.91
528904 -1.76808e+06 -2453.84
529404 -1.76808e+06 -2457.11
529904 -1.76808e+06 -2464.08
530404 -1.76808e+06 -2477.95
530904 -1.76808e+06 -2515.54
531404 -1.76808e+06 -2597.61
531904 -1.76808e+06 -2457.56
532404 -1.76808e+06 -2375.64
532904 -1.76808e+06 -2333.63
533404 -1.76808e+06 -2320.73
533904 -1.76808e+06 -2329.66
534404 -1.76808e+06 -2368.16
535904 -1.76808e+06 -2606.43
536404 -1.76808e+06 -2697.58
536904 -1.76808e+06 -2690.76
540904 -1.76808e+06 -2893.63
541404 -1.76808e+06 -2916.17
541904 -1.76808e+06 -2940.01
546404 -1.76808e+06 -2637.55
546904 -1.76808e+06 -2590.75
547404 -1.76808e+06 -2547.72
550904 -1.76808e+06 -2286.86
551404 -1.76808e+06 -2269.34
551904 -1.76808e+06 -2232.68
555904 -1.76808e+06 -2124.06
556404 -1.76808e+06 -2138.37
556904 -1.76808e+06 -2131.82
560904 -1.76808e+06 -2264.34
561404 -1.76808e+06 -2310.78
561904 -1.76808e+06 -2349.22
564904 -1.76808e+06 -2464.02
565404 -1.76808e+06 -2469.64
565904 -1.76808e+06 -2472.29
516404 -1.76758e+06 -2183.11
516904 -1.76758e+06 -2185.69
517404 -1.76758e+06 -2189.41
520904 -1.76758e+06 -2242.91
521404 -1.76758e+06 -2257.79
521904 -1.76758e+06 -2268.4
525404 -1.76758e+06 -2439.86
525904 -1.76758e+06 -2442.32
526404 -1.76758e+06 -2404.99
526904 -1.76758e+06 -2461.74
527404 -1.76758e+06 -2479.26
527904 -1.76758e+06 -2487.44
528404 -1.76758e+06 -2488.25
528904 -1.76758e+06 -2488.34
529404 -1.76758e+06 -2492.9
529904 -1.76758e+06 -2494.82
530404 -1.76758e+06 -2477.89
530904 -1.76758e+06 -2442.63
531404 -1.76758e+06 -2500.23
531904 -1.76758e+06 -2380.23
532404 -1.76758e+06 -2371.69
532904 -1.76758e+06 -2363.19
533404 -1.76758e+06 -2364.23
533904 -1.76758e+06 -2376.29
534404 -1.76758e+06 -2402.97
534904 -1.76758e+06 -2464.58
535404 -1.76758e+06 -2514.27
535904 -1.76758e+06 -2582.75
536404 -1.76758e+06 -2689.35
536904 -1.76758e+06 -2668.68
537404 -1.76758e+06 -2667.05
537904 -1.76758e+06 -2686.54
538404 -1.76758e+06 -2711.93
538904 -1.76758e+06 -2748.67
539404 -1.76758e+06 -2792.7
539904 -1.76758e+06 -2838.13
540404 -1.76758e+06 -2881.53
540904 -1.76758e+06 -2911.57
541404 -1.76758e+06 -2921.79
541904 -1.76758e+06 -2958.46
542404 -1.76758e+06 -2970
542904 -1.76758e+06 -2964.48
543404 -1.76758e+06 -2950.88
543904 -1.76758e+06 -2927.52
544404 -1.76758e+06 -2894.59
544904 -1.76758e+06 -2858.27
545404 -1.76758e+06 -2818.25
545904 -1.76758e+06 -2757.26
546404 -1.76758e+06 -2654.58
546904 -1.76758e+06 -2634.98
547404 -1.76758e+06 -2626.36
547904 -1.76758e+06 -2592.41
548404 -1.76758e+06 -2538.32
548904 -1.76758e+06 -2478.05
549404 -1.76758e+06 -2427.28
549904 -1.76758e+06 -2388.99
550404 -1.76758e+06 -2360.26
550904 -1.76758e+06 -2326.54
551404 -1.76758e+06 -2273.1
551904 -1.76758e+06 -2252.71
552404 -1.76758e+06 -2217.7
555904 -1.76758e+06 -2131.17
556404 -1.76758e+06 -2151.22
556904 -1.76758e+06 -2136.14
560904 -1.76758e+06 -2254.13
561404 -1.76758e+06 -2304.06
561904 -1.76758e+06 -2339.5
564904 -1.76758e+06 -2452.48
565404 -1.76758e+06 -2472.68
565904 -1.76758e+06 -2446.43
515904 -1.76708e+06 -2166.35
516404 -1.76708e+06 -2177.11
516904 -1.76708e+06 -2181.61
517404 -1.76708e+06 -2185.57
520904 -1.76708e+06 -2231.83
521404 -1.76708e+06 -2237.71
521904 -1.76708e+06 -2259.35
525404 -1.76708e+06 -2488.32
525904 -1.76708e+06 -2464.48
526404 -1.76708e+06 -2402.09
526904 -1.76708e+06 -2422.11
527404 -1.76708e+06 -2428.01
527904 -1.76708e+06 -2446.15
528404 -1.76708e+06 -2479.04
528904 -1.76708e+06 -2518.24
529404 -1.76708e+06 -2548.15
529904 -1.76708e+06 -2569.88
530404 -1.76708e+06 -2575.34
530904 -1.76708e+06 -2575.51
531404 -1.76708e+06 -2637.35
531904 -1.76708e+06 -2580.06
532404 -1.76708e+06 -2577.89
532904 -1.76708e+06 -2589.18
533404 -1.76708e+06 -2605.09
533904 -1.76708e+06 -2618.95
534404 -1.76708e+06 -2601.96
534904 -1.76708e+06 -2603.87
535404 -1.76708e+06 -2590.56
535904 -1.76708e+06 -2585.23
536404 -1.76708e+06 -2657.1
536904 -1.76708e+06 -2664.33
537404 -1.76708e+06 -2707.22
537904 -1.76708e+06 -2752.61
538404 -1.76708e+06 -2779.39
538904 -1.76708e+06 -2814.41
539404 -1.76708e+06 -2853.24
539904 -1.76708e+06 -2890.58
540404 -1.76708e+06 -2931.69
540904 -1.76708e+06 -2963.8
541404 -1.76708e+06 -2962.81
541904 -1.76708e+06 -2997.45
542404 -1.76708e+06 -2990.68
542904 -1.76708e+06 -2973.06
543404 -1.76708e+06 -2957.1
543904 -1.76708e+06 -2935.95
544404 -1.76708e+06 -2908.35
544904 -1.76708e+06 -2879.4
545404 -1.76708e+06 -2846.71
545904 -1.76708e+06 -2805.51
546404 -1.76708e+06 -2702.86
546904 -1.76708e+06 -2729.74
547404 -1.76708e+06 -2703.4
547904 -1.76708e+06 -2661.73
548404 -1.76708e+06 -2602.77
548904 -1.76708e+06 -2537.08
549404 -1.76708e+06 -2485.84
549904 -1.76708e+06 -2440.33
550404 -1.76708e+06 -2397.79
550904 -1.76708e+06 -2353.31
551404 -1.76708e+06 -2303.77
551904 -1.76708e+06 -2280.78
552404 -1.76708e+06 -2244.18
552904 -1.76708e+06 -2213.01
553404 -1.76708e+06 -2177.97
553904 -1.76708e+06 -2147.43
554404 -1.76708e+06 -2128.53
554904 -1.76708e+06 -2121.92
555404 -1.76708e+06 -2125.58
555904 -1.76708e+06 -2137.59
556404 -1.76708e+06 -2155.89
556904 -1.76708e+06 -2140.37
557404 -1.76708e+06 -2128.64
557904 -1.76708e+06 -2128.72
558404 -1.76708e+06 -2137.4
558904 -1.76708e+06 -2149.52
559404 -1.76708e+06 -2165.33
559904 -1.76708e+06 -2185.08
560404 -1.76708e+06 -2211.37
560904 -1.76708e+06 -2250.03
561404 -1.76708e+06 -2296.94
561904 -1.76708e+06 -2334.21
562404 -1.76708e+06 -2366.24
562904 -1.76708e+06 -2390.11
563404 -1.76708e+06 -2399.09
563904 -1.76708e+06 -2403.43
564404 -1.76708e+06 -2410.94
564904 -1.76708e+06 -2431.91
565404 -1.76708e+06 -2466.94
565904 -1.76708e+06 -2407.85
566404 -1.76708e+06 -2377.66
566904 -1.76708e+06 -2378.07
567404 -1.76708e+06 -2398.76
515404 -1.76658e+06 -2144.19
515904 -1.76658e+06 -2149.18
516404 -1.76658e+06 -2159.32
516904 -1.76658e+06 -2170.12
517404 -1.76658e+06 -2182.27
517904 -1.76658e+06 -2194.48
520904 -1.76658e+06 -2219.88
521404 -1.76658e+06 -2198.91
521904 -1.76658e+06 -2248.8
524904 -1.76658e+06 -2506.13
525404 -1.76658e+06 -2562.63
525904 -1.76658e+06 -2580.81
526404 -1.76658e+06 -2497.3
526904 -1.76658e+06 -2606.57
527404 -1.76658e+06 -2618.82
527904 -1.76658e+06 -2635.07
[...]
POINT_DATA 14758
SCALARS T double
LOOKUP_TABLE default
-95.6643 -88.1808 -56.0153 -87.873 -67.5457 -18.7963 -8.83822 42.3193 122.205 -225.217 -225.338 -87.435 250.003 341.478 396.44 -241.945 -273.136 -244.203 -187.798 -103.528 -106.563 -102.422 488.909 609.509 609.785 -271.891 -297.091 -272.739 -221.622 -119.697 -122.939 -118.011 533.875 682.985 622.054 -257.695 -292.89 -269.639 -211.429 -118.688 -131.252 -134.231 -128.086 414.075 529.007 528.005 -130.955 -157.052 -209.266 -238.36 -215.498 -125.109 -137.202 -139.169 -127.971 170.93 184.587 241.526 -117.479 -91.5499 -153.211 -194.43 -175.061 -156.597 -157.697 -149.324 -212.065 -127.045 -137.944 -139.092 -143.13 -170.256 -147.171 30.5171 21.925 89.5354 -122.657 -139.178 -118.322 -77.7318 -143.198 -187.264 -142.468 -139.869 -145.666 308.818 -207.443 -276.992 -259.135 -126.226 -135.933 -137.024 -168.448 -194.506 -161.662 -35.0342 -55.765 -9.89006 -133.991 -140.456 -126.551 -66.9536 -133.99 -186.678 -200.743 -209.507 -205.941 416.68 489.536 545.034 -231.052 -304.755 -292.408 -118.018 -125.295 -134.4 -136.203 -182.408 -198.021 -158.15 -35.2786 -98.23 -77.5496 -95.8057 -85.5706 -140.336 -136.657 -124.327 -111.369 -77.948 -36.6058 -7.6602 20.1787 38.3638 62.2146 -60.9244 -148.358 -214.596 -258.084 -281.452 -277.029 -281.059 -281.103 -268.965 -280.345 -282.494 596.671 617.677 636.103 -245.1 -308.952 -298.79 -155.171 -149.874 -129.022 -126.305 -134.833 -136.76 -192.803 -195.539 -146.337 9.81054 -117.43 -116.522 -115.098 -131.483 -124.356 -84.7731 -110.638 -91.0236 -85.8999 -120.796 -120.821 -134.074 -121.899 -94.6613 -39.4533 11.1426 48.071 37.1251 112.057 -105.903 -187.193 -253.726 -284.732 -300.143 -281.052 -281.2 -295.881 -295.678 -296.491 -306.898 -309.064 -329.141 -351.516 -400.08 -452.851 -433.482 -310.388 68.7537 477.677 619.054 724.472 716.992 713.851 778.354 861.377 895.366 488.074 114.032 -66.5141 -169.93 -257.255 -296.682 -282.232 -255.634 -235.083 -215.877 -191.198 -171.834 -168.629 -170.457 -166.49 -146.899 -126.733 -129.186 -135.396 -137.599 -206.942 -197.324 -133.958 106.725 -105.57 -79.234 -117.845 -141.376 -153.294 -142.463 -92.6604 -109.818 -91.7328 -28.9457 -53.316 -98.241 -146.515 -159.582 -148.491 -81.6916 3.2056 104.649 181.361 260.626 -17.9523 -160.404 -235.667 -264.608 -256.844 -227.471 -228.2 -267.369 -300.619 -313.723 -318.753 -319.758 -337.431 -369.666 -428.464 -486.779 -466.549 -329.511 35.3754 539.047 649.107 717.107 713.334 719.819 814.463 938.173 1052.31 713.806 195.635 -42.8158 -166.33 -254.163 -272.578 -266.26 -252.053 -238.346 -222.231 -200.106 -181.123 -173.729 -170.768 -165.159 -151.436 -137.413 -128.557 -123.712 -121.225 -120.865 -122.697 -126.433 -131.079 -134.691 -136.633 -135.586 -134.395 -139.113 -153.648 -168.423 -178.231 -195.838 -218.972 -204.59 -138.049 109.932 546.959 821.209 793.388 561.206 299.614 -42.2032 2.41423 67.2873 83.104 54.5064 -119.417 -138.449 -151.438 -155.368 -146.039 -124.079 -94.4604 -99.4928 -84.9533 9.42002 22.3413 26.1564 -34.9718 -63.639 -66.896 -52.2356 -31.7615 -14.1297 34.6715 159.426 224.428 43.01 -138.073 -227.614 -255.074 -227.993 -191.313 -195.896 -239.288 -280.229 -296.226 -299.833 -305.545 -317.029 -348.67 -391.711 -415.042 -375.536 -239.681 53.8338 542.802 701.905 696.286 706.031 682.57 779.139 985.794 1099.14 1083.86 503.935 -13.6143 -192.723 -274.488 -297.45 -283.967 -270.417 -252.329 -229.939 -204.75 -185.302 -176.67 -169.973 -161.358 -151.328 -141.709 -135.103 -131.975 -129.931 -128.313 -127.511 -127.964 -129.693 -131.721 -133.146 -134.539 -137.895 -147.757 -164.898 -179.161 -188.351 -204.332 -218.965 -208.532 -159.421 56.1573 791.67 886.637 733.208 697.495 559.478 157.11 156.304 182.237 144.051 63.6597 18.0587 -115.057 -137.309 -144.367 -146.744 -147.294 -142.868 -129.427 -111.218 -96.8381 -91.2368 -92.8053 -96.4665 -97.6756 -94.8046 -83.3905 -69.661 -59.9299 -55.079 -49.9489 -35.2259 -2.99172 36.3556 72.2128 48.2355 -16.2806 -24.728 -6.26123 -15.155 -45.4609 -41.8501 36.2522 183.289 66.6002 -138.847 -246.53 -261.529 -205.016 -149.069 -162.24 -219.641 -273.389 -296.719 -296.927 -296.872 -313.425 -359.834 -409.361 -417.296 -351.273 -130.431 329.652 726.291 836.078 810.705 757.57 665.42 714.309 934.785 887.714 410.449 102.215 -90.4739 -199.702 -260.135 -254.34 -247.414 -237.403 -222.63 -204.684 -186.234 -171.885 -162.829 -155.822 -150.487 -142.946 -137.534 -134.322 -132.403 -130.435 -128.204 -126.341 -125.194 -125.13 -126.63 -127.362 -129.979 -135.447 -145.936 -160.118 -171.528 -180.231 -192.056 -194.14 -187.637 -135.097 -9.60506 444.362 783.765 721.851 719.113 681.885 393.853 246.888 162.316 108.179 36.7517 -116.097 -131.011 -134.772 -136.883 -137.953 -137.902 -130.55 -117.111 -105.594 -101.39 -102.696 -103.712 -100.593 -94.7768 -85.5702 -77.5501 -73.4606 -73.2809 -71.5608 -59.3035 -29.527 17.799 58.7134 74.9903 18.0358 15.9573 37.9613 22.6753 -33.611 -60.685 -4.85243 114.089 36.4178 -159.597 -290.812 -293.708 -186.786 -55.3752 -118.412 -218.381 -290.813 -306.996 -291.615 -272.134 -281.949 -329.792 -372.753 -360.228 -236.495 112.997 635.383 792.768 837.53 884.203 888.784 811.467 761.851 825.905 457.028 -6.06954 -194.919 -252.138 -269.491 -290.189 -260.621 -245.149 -232.609 -217.582 -199.604 -181.639 -167.982 -158.662 -151.634 -146.757 -138.81 -133.971 -131.17 -129.252 -127.516 -125.472 -123.483 -122.079 -121.7 -123.052 -123.926 -126.954 -132.806 -142.549 -154.109 -163.843 -173.002 -183.605 -181.859 -167.542 -117.772 -7.28016 389.562 808.049 767.371 738.82 707.451 465.742 217.282 109.653 52.8802 -83.5361 -103.347 -114.85 -120.292 -127.067 -131.983 -136.499 -132.297 -120.782 -110.208 -106.82 -108.757 -109.633 -106.183 -100.431 -92.7169 -87.2608 -86.896 -89.6774 -89.2961 -76.3449 -46.5485 -0.878781 38.7721 64.8371 36.6282 39.4655 63.3227 72.1776 7.01877 -28.8441 28.0997 184.356 53.8879 -167.859 -269.38 -241.266 -115.361 -3.11822 -70.2548 -194.8 -280.629 -311.44 -292.459 -245.81 -226.808 -295.671 -365.688 -356.571 -187.947 300.377 853.762 921.172 938.742 948.38 994.112 1000.08 938.746 566.129 64.4987 -202.177 -280.505 -299.628 -297.531 -301.67 -262.195 -244.576 -232.424 -218.393 -200.488 -181.822 -167.844 -158.552 -151.356 -145.878 -137.574 -132.472 -129.268 -126.874 -124.729 -122.657 -120.765 -119.416 -118.812 -120.285 -120.867 -123.894 -129.509 -138.449 -148.919 -158.164 -166.512 -173.756 -163.409 -130.524 -44.4087 115.884 449.079 738.511 800.066 614.674 680.118 444.642 200.071 88.6587 19.0744 -87.569 -97.985 -106.363 -117.393 -121.969 -126.051 -125.218 -120.436 -114.936 -111.893 -112.199 -111.814 -109.301 -106.903 -102.241 -99.6381 -101.309 -104.565 -103.301 -89.9412 -59.1006 -12.6203 28.9096 47.5882 28.2525 27.1373 34.3921 23.1893 -8.82591 -16.5396 126.885 470.611 227.671 -79.1196 -194.05 -152.879 40.5243 188.047 25.0608 -189.567 -296.049 -329.96 -302.108 -233.399 -137.267 -151.313 -239.933 -254.477 -100.132 320.022 728.795 771.265 495.872 661.762 851.275 1084.53 1101.25 588.669 -24.7235 -256.204 -313.692 -325.737 -311.792 -303.587 -258.286 -238.884 -227.119 -214.407 -197.817 -180.239 -166.806 -157.619 -150.456 -144.886 -136.198 -130.993 -127.81 -125.423 -123.255 -121.191 -119.406 -118.218 -117.963 -119.209 -119.737 -122.417 -127.61 -135.607 -144.603 -152.091 -157.043 -157.763 -143.989 -111.975 -32.6857 71.7954 140.6 354.147 786.909 718.863 407.414 250.725 129.469 51.7592 -15.6709 -67.537 -96.3298 -96.153 -55.1258 -69.6141 -79.7982 -89.0687 -100.733 -110.624 -119.228 -123.625 -122.696 -118.811 -115.533 -114.006 -112.88 -112.027 -113.22 -110.952 -110.768 -113.587 -116.25 -112.441 -96.4981 -66.0507 -24.3658 10.7579 22.2956 1.79331 -13.2205 -31.5373 -67.4383 -105.559 -102.764 17.199 413.766 419.174 80.5801 -88.6075 8.26381 386.151 470.634 70.9864 -213.523 -333.17 -369.801 -340.839 -258.075 -20.6455 110.257 19.1555 -12.8408 168.75 445.553 160.574 -17.7211 -107.158 -104.439 113.619 526.06 987.689 651.436 124.498 -140.366 -231.92 -262.782 -265.281 -271.202 -240.842 -228.012 -219.871 -209.468 -194.887 -178.892 -166.425 -157.614 -150.259 -143.882 -135.656 -130.52 -127.107 -124.625 -122.448 -120.451 -118.802 -117.722 -117.468 -118.757 -119.092 -121.6 -126.596 -134.646 -144.06 -151.882 -156.623 -157.727 -146.882 -121.129 -68.501 -36.8431 -1.21428 138.724 540.557 613.299 284.52 106.066 42.0293 -2.91549 -54.5087 -100.103 -123.778 -116.841 -95.1171 -53.2315 -63.6973 -74.4279 -87.7262 -102.603 -116.869 -126.189 -127.938 -126.238 -123.473 -120.39 -117.906 -117.543 -120.295 -119.43 -120.058 -121.618 -120.559 -112.403 -93.9232 -64.7349 -30.4229 -4.08231 0.655627 -22.8891 -51.8654 -96.5445 -153.311 -198.131 -196.284 -120.013 109.341 541.006 398.548 381.468 518.281 810.141 493.554 32.4855 -221.176 -351.431 -399.081 -376.605 -280.36 45.5457 483.74 527.387 472.57 662.812 458.888 -21.3178 -286.871 -380.878 -363.353 -232.353 42.3342 477.148 640.391 331.268 38.3741 -106.18 -167.639 -199.386 -228.98 -220.922 -217.735 -212.49 -202.854 -189.216 -174.65 -163.499 -155.383 -148.36 -142.18 -134.423 -129.739 -126.587 -124.083 -121.929 -120.07 -118.591 -117.566 -117.254 -118.385 -118.235 -120.078 -124.215 -130.959 -139.104 -146.308 -150.378 -150.981 -145.692 -133.007 -98.8787 -89.46 -73.2475 57.8747 546.889 556.869 261.741 74.6614 4.78771 -37.3011 -75.6747 -107.817 -122.4 -118.781 -102.762 -39.6269 -49.2406 -60.8446 -75.5771 -91.0243 -106.821 -120.038 -129.481 -134.199 -131.713 -125.731 -121.64 -121.343 -124.048 -123.466 -124.151 -123.16 -117.089 -102.824 -81.1279 -54.9031 -30.1542 -15.117 -13.8438 -38.859 -67.2005 -106.133 -148.049 -175.478 -170.192 -111.34 64.7982 520.394 921.742 1019.96 1113.29 1188.6 632.149 110.218 -185.973 -328.742 -389.449 -400.512 -362.337 80.9638 725.948 863.961 866.386 842.21 353.125 -130.738 -376.983 -460.895 -459.331 -377.491 -226.043 24.1982 321.343 400.209 229.461 31.5961 -69.9246 -135.535 -188.867 -200.126 -204.977 -203.429 -195.816 -183.395 -170.56 -160.931 -153.51 -146.55 -140.319 -133.323 -129.094 -126.213 -123.935 -121.928 -120.141 -118.697 -117.77 -117.539 -118.719 -118.744 -120.627 -124.418 -130.627 -138.311 -144.911 -148.675 -148.586 -143.845 -137.346 -103.163 -79.2433 -43.4864 93.3613 410.675 511.138 251.473 81.264 -0.603657 -55.3301 -96.3722 -125.55 -131.661 -122.419 -41.5584 -53.7799 -68.903 -83.9495 -101.224 -118.76 -133.023 -140.806 -138.268 -131.73 -126.07 -124.524 -126.021 -126.014 -126.598 -123.225 -112.139 -92.6085 -67.7254 -43.4674 -25.5743 -17.239 -18.6819 -42.9264 -68.2239 -102.13 -137.056 -161.439 -160.538 -107.594 103.411 647.972 1231.07 1095.09 812.321 1054.9 882.263 337.08 -10.773 -182.401 -249.377 -236.784 -160.524 294.102 745.919 849.458 930.598 680.039 78.6438 -253.927 -423.279 -476.043 -468.872 -417.271 -325.682 -190.834 7.16679 333.846 326.292 95.8625 -41.2568 -118.412 -174.13 -189.491 -195.911 -194.997 -187.892 -176.661 -165.436 -156.824 -149.921 -143.592 -138.238 -132.071 -128.395 -125.756 -123.591 -121.787 -120.298 -119.123 -118.336 -118.119 -119.039 -119.154 -120.721 -123.81 -129.363 -136.816 -143.883 -147.602 -146.547 -140.19 -131.308 -95.8128 -58.0296 -7.65658 104.395 345.704 418.822 227.432 73.7652 -9.23681 -60.7794 -94.4004 -114.437 -120.794 -121.304 -30.8423 -41.1743 -51.9828 -65.7353 -79.0195 -93.9631 -110.23 -124.259 -133.198 -135.673 -133.92 -130.246 -127.898 -128.434 -129.263 -128.853 -121.88 -105.601 -81.0717 -54.4573 -34.4548 -26.0947 -28.4213 -35.3055 -51.1374 -54.8683 -50.3069 -34.6541 -18.1739 -12.8822 31.4471 187.419 368.243 344.544 218.341 170.793 287.239 603.739 754.054 410.549 158.725 153.506 259.114 351.481 604.977 776.205 801.463 821.626 423.555 -52.0428 -305.917 -417.259 -449.014 -433.072 -428.429 -406.036 -356.522 -240.638 39.2759 247.736 20.9228 -104.575 -159.283 -187.819 -200.295 -205.255 -203.404 -193.752 -179.079 -165.915 -157.476 -150.794 -143.975 -137.736 -132.486 -129.153 -126.593 -124.37 -122.433 -120.801 -119.621 -118.905 -118.736 -119.367 -119.57 -120.745 -123.085 -127.463 -133.85 -139.906 -143.295 -142.338 -135.494 -124.103 -88.2742 -42.9521 13.8302 91.9724 193.783 223.838 142.242 42.631 -30.074 -79.241 -111.3 -128.519 -133.131 -128.044 -112.635 -34.2703 -40.9947 -48.8015 -60.3639 -71.9635 -84.2282 -97.4452 -109.992 -119.995 -125.651 -127.098 -126.306 -126.371 -128.932 -128.387 -125.479 -115.602 -96.626 -71.4286 -48.2838 -35.486 -36.6279 -48.4356 -63.9282 -76.734 -70.8498 -36.5959 38.7348 105.177 125.337 185.07 228.509 97.5445 -33.5656 -167.245 -214.442 -152.249 80.6584 614.904 899.82 764.104 707.769 700.478 738.665 738.094 725.368 702.281 695.565 359.58 -101.172 -303.977 -361.528 -358.419 -338.552 -342.966 -348.992 -344.811 -298.514 -197.866 -124.094 -126.998 -161.137 -183.905 -194.735 -199.048 -200.868 -198.817 -189.723 -175.7 -163.429 -155.79 -149.495 -142.722 -136.688 -132.041 -129.067 -126.722 -124.632 -122.773 -121.192 -119.978 -119.248 -118.983 -119.294 -119.459 -120.333 -122.043 -125.333 -130.568 -136.211 -140.015 -140.322 -135.15 -122.679 -91.8854 -45.7628 14.7609 80.4735 132.621 131.734 75.7597 2.6428 -57.512 -97.006 -120.703 -132.656 -135.915 -129.704 -34.0878 -40.2219 -41.987 -46.7278 -54.2007 -63.6039 -74.4539 -86.3508 -98.2297 -108.85 -116.968 -121.589 -124.022 -126.618 -130.787 -130.552 -127.01 -114.411 -91.7363 -64.7892 -45.0112 -41.0416 -53.8946 -76.2924 -101.526 -117.355 -119.16 -96.2323 -46.4317 16.0203 67.8567 99.482 53.8238 -97.0707 -188.456 -275.736 -302.474 -269.34 -149.957 178.437 773.35 915.351 929.061 941.82 888.628 852.806 659.284 501.191 430.221 244.582 -26.3463 -171.84 -208.597 -213.329 -235.867 -272.878 -307.684 -321.959 -296.626 -246.646 -208.227 -190.857 -190.846 -196.585 -198.501 -196.177 -193.437 -190.475 -182.769 -170.92 -160.433 -153.646 -147.823 -141.339 -135.66 -131.541 -128.823 -126.561 -124.526 -122.706 -121.153 -119.991 -119.299 -119.005 -119.117 -119.335 -119.965 -121.105 -123.507 -127.894 -133.83 -139.225 -142.369 -140.586 -130.115 -108.878 -69.9054 -13.7891 50.8167 95.4348 86.6938 27.9803 -38.3912 -87.9513 -113.584 -126.939 -134.025 -134.965 -127.763 -111.505 -45.0002 -47.5447 -46.7992 -48.7672 -52.0918 -58.6773 -67.6189 -78.527 -90.1114 -101.184 -110.528 -117.305 -122.417 -127.222 -132.78 -132.335 -127.193 -113.216 -91.2627 -68.8133 -56.7358 -61.211 -80.6665 -107.952 -138.728 -157.813 -172.787 -171.005 -153.162 -124.327 -93.1991 -91.41 -136.569 -206.073 -255.08 -328.105 -356.747 -343.406 -260.679 9.46465 710.489 1003.73 1100.33 1101.82 925.434 801.295 618.956 509.059 449.756 328.339 148.542 6.05795 -30.6323 -60.5629 -147.53 -217.705 -265.171 -279.862 -271.171 -254.381 -233.207 -215.43 -207.334 -206.858 -204.292 -200.433 -193.219 -188.376 -180.31 -168.707 -158.711 -152.391 -146.542 -140.141 -134.808 -130.949 -128.204 -125.818 -123.676 -121.861 -120.472 -119.43 -118.721 -118.313 -118.326 -118.253 -118.517 -118.955 -120.129 -122.517 -126.255 -130.138 -132.971 -133.717 -130.529 -117.224 -94.3738 -61.035 -22.4135 4.49471 -0.648265 -34.4692 -71.4979 -98.0707 -113.612 -123.826 -130.827 -131.266 -123.547 -106.763 -41.3996 -50.2358 -51.4097 -51.3616 -52.984 -54.8089 -58.2888 -65.0697 -74.7875 -85.7667 -96.8935 -106.944 -114.541 -121.29 -127.599 -134.519 -135.337 -131.514 -119.06 -98.6309 -78.9165 -72.0757 -83.7945 -109.112 -138.337 -167.986 -182.86 -196.397 -200.424 -194.954 -185.397 -178.163 -182.987 -197.892 -218.993 -237.566 -272.977 -280.067 -248.711 -143.195 126.13 703.933 1023.04 1030.7 679.564 539.836 395.341 451.965 585.39 619.231 489.59 293.664 91.9044 -7.90472 -76.0889 -144.672 -200.309 -236.237 -252.087 -255.543 -249.533 -235.993 -222.801 -214.76 -211.499 -206.602 -199.616 -189.734 -183.763 -176.699 -166.427 -157.341 -151.52 -145.812 -139.339 -134.302 -130.576 -127.809 -125.388 -123.17 -121.298 -119.904 -118.847 -118.102 -117.77 -117.719 -117.615 -117.703 -117.941 -118.557 -119.884 -122.27 -125.317 -128.091 -129.818 -130.205 -122.368 -109.6 -91.9033 -72.8035 -60.068 -61.7548 -77.5873 -95.7779 -110.329 -119.669 -125.071 -127.585 -125.767 -116.889 -99.8632 -79.3348 -43.4689 -48.6946 -50.0265 -52.1108 -55.3883 -58.661 -61.7798 -66.9775 -74.2716 -82.9572 -92.7597 -103.03 -112.728 -121.936 -130.42 -137.941 -141.497 -140.187 -131.338 -115.474 -100.797 -98.1817 -112.176 -137.701 -165.678 -189.037 -204.534 -217.499 -228.124 -230.968 -221.41 -210.541 -207.062 -203.609 -197.141 -189.25 -198.246 -184.248 -135.898 -2.01617 415.646 1155.94 1366.38 810.78 49.3155 -137.739 -170.003 -13.571 249.041 443.79 403.769 168.578 -11.6549 -108.549 -156.38 -191.138 -215.428 -234.314 -245.828 -248.994 -244.247 -234.618 -224.874 -217.711 -212.33 -207.307 -197.946 -186.112 -178.482 -172.075 -163.763 -156.049 -150.952 -145.755 -139.474 -134.472 -130.868 -128.133 -125.655 -123.392 -121.5 -119.985 -118.85 -118.109 -117.676 -117.368 -117.505 -117.483 -117.422 -117.48 -117.905 -119.305 -121.768 -124.859 -127.372 -129.267 -127.688 -122.299 -113.736 -103.835 -97.1725 -96.8011 -103.33 -109.545 -115.183 -118.519 -120.222 -120.773 -118.983 -108.855 -91.6384 -36.0524 -42.4212 -45.1424 -47.0802 -50.8633 -55.8844 -60.9764 -64.8932 -69.1451 -73.7891 -79.6236 -87.7015 -97.8403 -108.612 -118.776 -128.038 -136.067 -141.204 -144.007 -142.217 -135.263 -128.017 -128.081 -139.111 -157.728 -177.433 -193.057 -202.635 -207.24 -210.643 -212.818 -208.4 -192.396 -171.198 -153.79 -135.436 -107.653 -74.3652 -17.7511 82.942 186.385 292.988 506.884 932.322 770.794 -69.2524 -258.111 -330.021 -259.771 -80.9563 99.7418 127.912 -42.9818 -166.617 -218.149 -235.867 -240.94 -241.587 -247.693 -256.686 -259.27 -255.854 -248.324 -241.005 -234.489 -225.667 -211.986 -201.781 -184.928 -175.471 -170.046 -163.43 -156.283 -151.758 -147.382 -140.82 -135.19 -131.454 -128.354 -125.528 -122.973 -120.846 -119.284 -118.63 -117.976 -117.6 -117.132 -117.793 -118.202 -118.478 -118.619 -118.73 -119.232 -120.833 -123.957 -127.778 -129.105 -133.821 -134.99 -133.065 -129.138 -125.677 -124.088 -120.167 -124.956 -124.71 -123.015 -121.113 -118.817 -112.837 -99.6058 -105.012 -42.0164 -44.0463 -46.226 -50.1629 -55.5129 -61.2956 -65.7235 -68.9117 -71.3372 -75.0863 -82.1117 -92.1872 -103.349 -113.279 -121.185 -128.556 -135.868 -143.904 -148.969 -149.557 -147.806 -148.279 -153.692 -163.379 -175.651 -186.775 -192.366 -193.96 -191.896 -184.27 -168.272 -139.849 -102.474 -69.2435 -49.6219 -26.2084 50.7276 99.5458 95.5983 -37.4341 -126.437 -87.4075 170.669 306.486 -42.9419 -280.675 -384.551 -367.309 -289.785 -199.773 -169.342 -213.857 -254.569 -269.667 -269.688 -267.206 -264.782 -263.382 -268.049 -266.974 -259.499 -249.288 -239.188 -229.59 -219.545 -206.141 -194.741 -179.248 -168.398 -164.635 -161.308 -156.318 -153.001 -148.7 -142.152 -136.145 -132.106 -128.838 -125.861 -123.078 -120.704 -118.878 -117.623 -116.629 -116.043 -115.796 -115.641 -115.643 -115.658 -115.567 -115.487 -115.504 -115.744 -116.578 -118.211 -120.412 -121.058 -122.028 -121.636 -119.82 -118.127 -117.596 -117.131 -117.575 -117.034 -114.851 -112.542 -109.48 -102.442 -132.904 -134.975 -103.913 -38.6411 -42.2631 -45.9768 -48.1706 -50.5988 -54.9464 -60.0482 -63.6764 -65.682 -66.9624 -69.8551 -76.6134 -86.8381 -97.9268 -106.957 -112.617 -117.034 -124.921 -138.23 -151.701 -159.871 -162.624 -162.724 -162.492 -165.132 -170.229 -175.679 -180.897 -183.802 -180.625 -167.527 -141.597 -100.14 -45.3018 0.409037 1.35408 -16.2901 -3.31354 -24.284 -103.454 -195.743 -253.258 -236.12 -64.0656 268.008 172.079 -181.837 -330.999 -358.126 -333.641 -299.271 -279.075 -277.535 -279.07 -275.191 -273.254 -276.517 -277.829 -271.72 -270.988 -267.811 -259.327 -248.454 -238.583 -229.841 -217.76 -199.659 -184.414 -167.204 -155.477 -153.194 -153.475 -151.981 -150.564 -148.175 -143.171 -137.114 -132.519 -128.932 -125.883 -123.159 -120.854 -118.984 -117.723 -116.779 -116.085 -115.543 -115.544 -115.575 -115.661 -115.664 -115.607 -115.507 -115.329 -115.296 -115.851 -116.806 -118.432 -119.637 -120.094 -119.686 -118.871 -117.453 -114.699 -112.855 -109.922 -107.315 -104.993 -101.49 -93.8115 -80.3103 -148.89 -138.307 -103.119 -58.1158 -31.3066 -29.714 -38.4987 -46.5168 -49.7778 -50.9956 -54.223 -58.5003 -60.8126 -61.8437 -62.8364 -65.5919 -71.8524 -81.4907 -